<?xml version="1.0" encoding="UTF-8"?>

<!-- generated on 2024-07-31 05:24:53 by Eclipse SUMO GUI Version 1.20.0
<configuration xmlns:xsi="http://www.w3.org/2001/XMLSchema-instance" xsi:noNamespaceSchemaLocation="http://sumo.dlr.de/xsd/sumoConfiguration.xsd">

    <input>
        <net-file value="data/cross.net.xml"/>
        <route-files value="data/cross.rou.xml"/>
        <additional-files value="data/cross.det.xml"/>
    </input>

    <output>
        <tripinfo-output value="tripinfo.xml"/>
    </output>

    <time>
        <begin value="0"/>
    </time>

    <report>
        <verbose value="true"/>
        <no-step-log value="true"/>
    </report>

    <traci_server>
        <remote-port value="13001"/>
    </traci_server>

</configuration>
-->

<tripinfos xmlns:xsi="http://www.w3.org/2001/XMLSchema-instance" xsi:noNamespaceSchemaLocation="http://sumo.dlr.de/xsd/tripinfo_file.xsd">
    <tripinfo id="car_0" depart="0.00" departLane="54o_0" departPos="5.10" departSpeed="0.00" departDelay="0.00" arrival="59.00" arrivalLane="53i_0" arrivalPos="6.00" arrivalSpeed="20.28" duration="59.00" routeLength="1017.75" waitingTime="0.00" waitingCount="0" stopTime="0.00" timeLoss="47.07" rerouteNo="0" devices="tripinfo_car_0" vType="car" speedFactor="1.06" vaporized=""/>
    <tripinfo id="bus_2" depart="5.00" departLane="54o_0" departPos="6.00" departSpeed="0.00" departDelay="4.00" arrival="66.00" arrivalLane="53i_0" arrivalPos="6.00" arrivalSpeed="19.51" duration="61.00" routeLength="1016.85" waitingTime="0.00" waitingCount="0" stopTime="0.00" timeLoss="47.46" rerouteNo="0" devices="tripinfo_bus_2" vType="bus" speedFactor="1.01" vaporized=""/>
    <tripinfo id="car_13" depart="12.00" departLane="54o_0" departPos="5.10" departSpeed="0.00" departDelay="4.00" arrival="71.00" arrivalLane="53i_0" arrivalPos="6.00" arrivalSpeed="21.44" duration="59.00" routeLength="1017.75" waitingTime="0.00" waitingCount="0" stopTime="0.00" timeLoss="46.43" rerouteNo="0" devices="tripinfo_car_13" vType="car" speedFactor="1.12" vaporized=""/>
    <tripinfo id="bus_1" depart="0.00" departLane="52o_0" departPos="6.00" departSpeed="0.00" departDelay="0.00" arrival="73.00" arrivalLane="54i_0" arrivalPos="6.00" arrivalSpeed="18.06" duration="73.00" routeLength="1000.57" waitingTime="0.00" waitingCount="0" stopTime="0.00" timeLoss="58.33" rerouteNo="0" devices="tripinfo_bus_1" vType="bus" speedFactor="0.94" vaporized=""/>
    <tripinfo id="bus_12" depart="11.00" departLane="53o_0" departPos="6.00" departSpeed="0.00" departDelay="4.00" arrival="77.00" arrivalLane="54i_0" arrivalPos="6.00" arrivalSpeed="19.98" duration="66.00" routeLength="1016.85" waitingTime="1.00" waitingCount="1" stopTime="0.00" timeLoss="52.30" rerouteNo="0" devices="tripinfo_bus_12" vType="bus" speedFactor="1.05" vaporized=""/>
    <tripinfo id="car_14" depart="17.00" departLane="54o_0" departPos="5.10" departSpeed="0.00" departDelay="9.00" arrival="78.00" arrivalLane="53i_0" arrivalPos="6.00" arrivalSpeed="19.10" duration="61.00" routeLength="1017.75" waitingTime="0.00" waitingCount="0" stopTime="0.00" timeLoss="47.70" rerouteNo="0" devices="tripinfo_car_14" vType="car" speedFactor="0.99" vaporized=""/>
    <tripinfo id="car_8" depart="6.00" departLane="53o_0" departPos="5.10" departSpeed="0.00" departDelay="1.00" arrival="79.00" arrivalLane="52i_0" arrivalPos="6.00" arrivalSpeed="18.04" duration="73.00" routeLength="1001.47" waitingTime="0.00" waitingCount="0" stopTime="0.00" timeLoss="59.51" rerouteNo="0" devices="tripinfo_car_8" vType="car" speedFactor="0.94" vaporized=""/>
    <tripinfo id="car_25" depart="16.00" departLane="52o_0" departPos="5.10" departSpeed="0.00" departDelay="0.00" arrival="92.00" arrivalLane="54i_0" arrivalPos="6.00" arrivalSpeed="16.72" duration="76.00" routeLength="1001.47" waitingTime="0.00" waitingCount="0" stopTime="0.00" timeLoss="61.96" rerouteNo="0" devices="tripinfo_car_25" vType="car" speedFactor="0.87" vaporized=""/>
    <tripinfo id="car_17" depart="25.00" departLane="53o_0" departPos="5.10" departSpeed="0.00" departDelay="16.00" arrival="93.00" arrivalLane="54i_0" arrivalPos="6.00" arrivalSpeed="18.02" duration="68.00" routeLength="1017.75" waitingTime="0.00" waitingCount="0" stopTime="0.00" timeLoss="55.06" rerouteNo="0" devices="tripinfo_car_17" vType="car" speedFactor="0.94" vaporized=""/>
    <tripinfo id="bus_15" depart="18.00" departLane="53o_0" departPos="6.00" departSpeed="0.00" departDelay="10.00" arrival="96.00" arrivalLane="52i_0" arrivalPos="6.00" arrivalSpeed="17.68" duration="78.00" routeLength="1000.57" waitingTime="1.00" waitingCount="1" stopTime="0.00" timeLoss="63.25" rerouteNo="0" devices="tripinfo_bus_15" vType="bus" speedFactor="0.93" vaporized=""/>
    <tripinfo id="car_21" depart="29.00" departLane="54o_0" departPos="5.10" departSpeed="0.00" departDelay="17.00" arrival="102.00" arrivalLane="51i_0" arrivalPos="6.00" arrivalSpeed="19.61" duration="73.00" routeLength="1001.47" waitingTime="0.00" waitingCount="0" stopTime="0.00" timeLoss="60.92" rerouteNo="0" devices="tripinfo_car_21" vType="car" speedFactor="1.01" vaporized=""/>
    <tripinfo id="car_5" depart="2.00" departLane="53o_0" departPos="5.10" departSpeed="0.00" departDelay="0.00" arrival="116.00" arrivalLane="51i_0" arrivalPos="6.00" arrivalSpeed="16.01" duration="114.00" routeLength="1013.64" waitingTime="29.00" waitingCount="1" stopTime="0.00" timeLoss="99.44" rerouteNo="0" devices="tripinfo_car_5" vType="car" speedFactor="0.83" vaporized=""/>
    <tripinfo id="bus_16" depart="22.00" departLane="54o_0" departPos="6.00" departSpeed="0.00" departDelay="14.00" arrival="117.00" arrivalLane="52i_0" arrivalPos="6.00" arrivalSpeed="16.98" duration="95.00" routeLength="1012.74" waitingTime="10.00" waitingCount="2" stopTime="0.00" timeLoss="80.68" rerouteNo="0" devices="tripinfo_bus_16" vType="bus" speedFactor="0.88" vaporized=""/>
    <tripinfo id="car_18" depart="29.00" departLane="53o_0" departPos="5.10" departSpeed="0.00" departDelay="20.00" arrival="118.00" arrivalLane="51i_0" arrivalPos="6.00" arrivalSpeed="17.95" duration="89.00" routeLength="1013.64" waitingTime="2.00" waitingCount="1" stopTime="0.00" timeLoss="76.06" rerouteNo="0" devices="tripinfo_car_18" vType="car" speedFactor="0.94" vaporized=""/>
    <tripinfo id="bus_50" depart="44.00" departLane="52o_0" departPos="6.00" departSpeed="0.00" departDelay="11.00" arrival="118.00" arrivalLane="54i_0" arrivalPos="6.00" arrivalSpeed="16.29" duration="74.00" routeLength="1000.57" waitingTime="0.00" waitingCount="0" stopTime="0.00" timeLoss="58.66" rerouteNo="0" devices="tripinfo_bus_50" vType="bus" speedFactor="0.85" vaporized=""/>
    <tripinfo id="car_45" depart="58.00" departLane="54o_0" departPos="5.10" departSpeed="0.00" departDelay="28.00" arrival="119.00" arrivalLane="52i_0" arrivalPos="6.00" arrivalSpeed="19.71" duration="61.00" routeLength="1013.64" waitingTime="0.00" waitingCount="0" stopTime="0.00" timeLoss="49.30" rerouteNo="0" devices="tripinfo_car_45" vType="car" speedFactor="1.09" vaporized=""/>
    <tripinfo id="bus_22" depart="35.00" departLane="53o_0" departPos="6.00" departSpeed="0.00" departDelay="23.00" arrival="120.00" arrivalLane="51i_0" arrivalPos="6.00" arrivalSpeed="18.90" duration="85.00" routeLength="1012.74" waitingTime="0.00" waitingCount="0" stopTime="0.00" timeLoss="70.49" rerouteNo="0" devices="tripinfo_bus_22" vType="bus" speedFactor="0.97" vaporized=""/>
    <tripinfo id="bus_23" depart="42.00" departLane="53o_0" departPos="6.00" departSpeed="0.00" departDelay="29.00" arrival="122.00" arrivalLane="51i_0" arrivalPos="6.00" arrivalSpeed="17.23" duration="80.00" routeLength="1012.74" waitingTime="0.00" waitingCount="0" stopTime="0.00" timeLoss="65.75" rerouteNo="0" devices="tripinfo_bus_23" vType="bus" speedFactor="0.89" vaporized=""/>
    <tripinfo id="bus_46" depart="63.00" departLane="54o_0" departPos="6.00" departSpeed="0.00" departDelay="32.00" arrival="123.00" arrivalLane="52i_0" arrivalPos="6.00" arrivalSpeed="19.21" duration="60.00" routeLength="1012.74" waitingTime="0.00" waitingCount="0" stopTime="0.00" timeLoss="45.56" rerouteNo="0" devices="tripinfo_bus_46" vType="bus" speedFactor="1.00" vaporized=""/>
    <tripinfo id="bus_49" depart="69.00" departLane="54o_0" departPos="6.00" departSpeed="0.00" departDelay="37.00" arrival="130.00" arrivalLane="52i_0" arrivalPos="6.00" arrivalSpeed="16.19" duration="61.00" routeLength="1012.74" waitingTime="0.00" waitingCount="0" stopTime="0.00" timeLoss="45.53" rerouteNo="0" devices="tripinfo_bus_49" vType="bus" speedFactor="0.85" vaporized=""/>
    <tripinfo id="bus_30" depart="35.00" departLane="54o_0" departPos="6.00" departSpeed="0.00" departDelay="15.00" arrival="135.00" arrivalLane="51i_0" arrivalPos="6.00" arrivalSpeed="22.79" duration="100.00" routeLength="1000.57" waitingTime="13.00" waitingCount="1" stopTime="0.00" timeLoss="85.84" rerouteNo="0" devices="tripinfo_bus_30" vType="bus" speedFactor="1.18" vaporized=""/>
    <tripinfo id="car_33" depart="56.00" departLane="53o_0" departPos="5.10" departSpeed="0.00" departDelay="33.00" arrival="136.00" arrivalLane="51i_0" arrivalPos="6.00" arrivalSpeed="22.74" duration="80.00" routeLength="1013.64" waitingTime="0.00" waitingCount="0" stopTime="0.00" timeLoss="68.68" rerouteNo="0" devices="tripinfo_car_33" vType="car" speedFactor="1.17" vaporized=""/>
    <tripinfo id="car_34" depart="64.00" departLane="51o_0" departPos="5.10" departSpeed="0.00" departDelay="40.00" arrival="142.00" arrivalLane="53i_0" arrivalPos="6.00" arrivalSpeed="19.07" duration="78.00" routeLength="1001.47" waitingTime="0.00" waitingCount="0" stopTime="0.00" timeLoss="65.67" rerouteNo="0" devices="tripinfo_car_34" vType="car" speedFactor="0.99" vaporized=""/>
    <tripinfo id="bus_39" depart="46.00" departLane="54o_0" departPos="6.00" departSpeed="0.00" departDelay="19.00" arrival="143.00" arrivalLane="51i_0" arrivalPos="6.00" arrivalSpeed="17.50" duration="97.00" routeLength="1000.57" waitingTime="6.00" waitingCount="3" stopTime="0.00" timeLoss="82.99" rerouteNo="0" devices="tripinfo_bus_39" vType="bus" speedFactor="0.90" vaporized=""/>
    <tripinfo id="car_37" depart="70.00" departLane="51o_0" departPos="5.10" departSpeed="0.00" departDelay="44.00" arrival="145.00" arrivalLane="53i_0" arrivalPos="6.00" arrivalSpeed="22.60" duration="75.00" routeLength="1001.47" waitingTime="0.00" waitingCount="0" stopTime="0.00" timeLoss="63.63" rerouteNo="0" devices="tripinfo_car_37" vType="car" speedFactor="1.18" vaporized=""/>
    <tripinfo id="car_40" depart="54.00" departLane="54o_0" departPos="5.10" departSpeed="0.00" departDelay="27.00" arrival="145.00" arrivalLane="51i_0" arrivalPos="6.00" arrivalSpeed="19.65" duration="91.00" routeLength="1001.47" waitingTime="1.00" waitingCount="1" stopTime="0.00" timeLoss="79.08" rerouteNo="0" devices="tripinfo_car_40" vType="car" speedFactor="1.03" vaporized=""/>
    <tripinfo id="bus_36" depart="69.00" departLane="53o_0" departPos="6.00" departSpeed="0.00" departDelay="44.00" arrival="147.00" arrivalLane="52i_0" arrivalPos="6.00" arrivalSpeed="18.76" duration="78.00" routeLength="1000.57" waitingTime="1.00" waitingCount="1" stopTime="0.00" timeLoss="64.52" rerouteNo="0" devices="tripinfo_bus_36" vType="bus" speedFactor="0.97" vaporized=""/>
    <tripinfo id="car_54" depart="76.00" departLane="54o_0" departPos="5.10" departSpeed="0.00" departDelay="41.00" arrival="153.00" arrivalLane="51i_0" arrivalPos="6.00" arrivalSpeed="19.42" duration="77.00" routeLength="1001.47" waitingTime="0.00" waitingCount="0" stopTime="0.00" timeLoss="63.94" rerouteNo="0" devices="tripinfo_car_54" vType="car" speedFactor="1.00" vaporized=""/>
    <tripinfo id="bus_58" depart="82.00" departLane="54o_0" departPos="6.00" departSpeed="0.00" departDelay="46.00" arrival="157.00" arrivalLane="51i_0" arrivalPos="6.00" arrivalSpeed="19.71" duration="75.00" routeLength="1000.57" waitingTime="0.00" waitingCount="0" stopTime="0.00" timeLoss="61.47" rerouteNo="0" devices="tripinfo_bus_58" vType="bus" speedFactor="1.02" vaporized=""/>
    <tripinfo id="car_6" depart="15.00" departLane="51o_0" departPos="5.10" departSpeed="0.00" departDelay="12.00" arrival="165.00" arrivalLane="52i_0" arrivalPos="6.00" arrivalSpeed="20.07" duration="150.00" routeLength="1017.75" waitingTime="58.00" waitingCount="2" stopTime="0.00" timeLoss="137.98" rerouteNo="0" devices="tripinfo_car_6" vType="car" speedFactor="1.05" vaporized=""/>
    <tripinfo id="car_26" depart="20.00" departLane="52o_0" departPos="5.10" departSpeed="0.00" departDelay="3.00" arrival="165.00" arrivalLane="51i_0" arrivalPos="6.00" arrivalSpeed="17.57" duration="145.00" routeLength="1017.75" waitingTime="55.00" waitingCount="2" stopTime="0.00" timeLoss="131.21" rerouteNo="0" devices="tripinfo_car_26" vType="car" speedFactor="0.92" vaporized=""/>
    <tripinfo id="bus_3" depart="1.00" departLane="51o_0" departPos="6.00" departSpeed="0.00" departDelay="0.00" arrival="167.00" arrivalLane="52i_0" arrivalPos="6.00" arrivalSpeed="20.94" duration="166.00" routeLength="1016.85" waitingTime="80.00" waitingCount="1" stopTime="0.00" timeLoss="152.29" rerouteNo="0" devices="tripinfo_bus_3" vType="bus" speedFactor="1.08" vaporized=""/>
    <tripinfo id="bus_7" depart="7.00" departLane="52o_0" departPos="6.00" departSpeed="0.00" departDelay="2.00" arrival="167.00" arrivalLane="51i_0" arrivalPos="6.00" arrivalSpeed="16.99" duration="160.00" routeLength="1016.85" waitingTime="75.00" waitingCount="2" stopTime="0.00" timeLoss="145.67" rerouteNo="0" devices="tripinfo_bus_7" vType="bus" speedFactor="0.89" vaporized=""/>
    <tripinfo id="car_64" depart="73.00" departLane="52o_0" departPos="5.10" departSpeed="0.00" departDelay="34.00" arrival="170.00" arrivalLane="51i_0" arrivalPos="6.00" arrivalSpeed="17.96" duration="97.00" routeLength="1017.75" waitingTime="8.00" waitingCount="1" stopTime="0.00" timeLoss="84.02" rerouteNo="0" devices="tripinfo_car_64" vType="car" speedFactor="0.94" vaporized=""/>
    <tripinfo id="car_10" depart="24.00" departLane="51o_0" departPos="5.10" departSpeed="0.00" departDelay="18.00" arrival="171.00" arrivalLane="52i_0" arrivalPos="6.00" arrivalSpeed="20.83" duration="147.00" routeLength="1017.75" waitingTime="46.00" waitingCount="3" stopTime="0.00" timeLoss="134.31" rerouteNo="0" devices="tripinfo_car_10" vType="car" speedFactor="1.09" vaporized=""/>
    <tripinfo id="car_11" depart="29.00" departLane="51o_0" departPos="5.10" departSpeed="0.00" departDelay="22.00" arrival="172.00" arrivalLane="52i_0" arrivalPos="6.00" arrivalSpeed="19.72" duration="143.00" routeLength="1017.75" waitingTime="46.00" waitingCount="3" stopTime="0.00" timeLoss="130.65" rerouteNo="0" devices="tripinfo_car_11" vType="car" speedFactor="1.03" vaporized=""/>
    <tripinfo id="car_68" depart="78.00" departLane="52o_0" departPos="5.10" departSpeed="0.00" departDelay="33.00" arrival="172.00" arrivalLane="51i_0" arrivalPos="6.00" arrivalSpeed="20.14" duration="94.00" routeLength="1017.75" waitingTime="3.00" waitingCount="1" stopTime="0.00" timeLoss="81.00" rerouteNo="0" devices="tripinfo_car_68" vType="car" speedFactor="1.04" vaporized=""/>
    <tripinfo id="bus_69" depart="83.00" departLane="52o_0" departPos="6.00" departSpeed="0.00" departDelay="38.00" arrival="173.00" arrivalLane="51i_0" arrivalPos="6.00" arrivalSpeed="19.65" duration="90.00" routeLength="1016.85" waitingTime="1.00" waitingCount="1" stopTime="0.00" timeLoss="76.29" rerouteNo="0" devices="tripinfo_bus_69" vType="bus" speedFactor="1.02" vaporized=""/>
    <tripinfo id="bus_19" depart="34.00" departLane="51o_0" departPos="6.00" departSpeed="0.00" departDelay="24.00" arrival="174.00" arrivalLane="52i_0" arrivalPos="6.00" arrivalSpeed="20.37" duration="140.00" routeLength="1016.85" waitingTime="38.00" waitingCount="3" stopTime="0.00" timeLoss="126.38" rerouteNo="0" devices="tripinfo_bus_19" vType="bus" speedFactor="1.16" vaporized=""/>
    <tripinfo id="bus_82" depart="94.00" departLane="52o_0" departPos="6.00" departSpeed="0.00" departDelay="39.00" arrival="175.00" arrivalLane="51i_0" arrivalPos="6.00" arrivalSpeed="19.64" duration="81.00" routeLength="1016.85" waitingTime="1.00" waitingCount="1" stopTime="0.00" timeLoss="67.29" rerouteNo="0" devices="tripinfo_bus_82" vType="bus" speedFactor="1.02" vaporized=""/>
    <tripinfo id="bus_29" depart="52.00" departLane="51o_0" departPos="6.00" departSpeed="0.00" departDelay="32.00" arrival="176.00" arrivalLane="52i_0" arrivalPos="6.00" arrivalSpeed="18.10" duration="124.00" routeLength="1016.85" waitingTime="26.00" waitingCount="3" stopTime="0.00" timeLoss="109.73" rerouteNo="0" devices="tripinfo_bus_29" vType="bus" speedFactor="0.93" vaporized=""/>
    <tripinfo id="bus_83" depart="103.00" departLane="52o_0" departPos="6.00" departSpeed="0.00" departDelay="47.00" arrival="177.00" arrivalLane="51i_0" arrivalPos="6.00" arrivalSpeed="18.75" duration="74.00" routeLength="1016.85" waitingTime="0.00" waitingCount="0" stopTime="0.00" timeLoss="60.03" rerouteNo="0" devices="tripinfo_bus_83" vType="bus" speedFactor="0.97" vaporized=""/>
    <tripinfo id="car_47" depart="87.00" departLane="51o_0" departPos="5.10" departSpeed="0.00" departDelay="56.00" arrival="178.00" arrivalLane="52i_0" arrivalPos="6.00" arrivalSpeed="17.28" duration="91.00" routeLength="1017.75" waitingTime="1.00" waitingCount="1" stopTime="0.00" timeLoss="77.09" rerouteNo="0" devices="tripinfo_car_47" vType="car" speedFactor="0.90" vaporized=""/>
    <tripinfo id="bus_48" depart="93.00" departLane="51o_0" departPos="6.00" departSpeed="0.00" departDelay="61.00" arrival="179.00" arrivalLane="52i_0" arrivalPos="6.00" arrivalSpeed="16.75" duration="86.00" routeLength="1016.85" waitingTime="0.00" waitingCount="0" stopTime="0.00" timeLoss="71.60" rerouteNo="0" devices="tripinfo_bus_48" vType="bus" speedFactor="0.88" vaporized=""/>
    <tripinfo id="car_57" depart="107.00" departLane="51o_0" departPos="5.10" departSpeed="0.00" departDelay="71.00" arrival="181.00" arrivalLane="52i_0" arrivalPos="6.00" arrivalSpeed="18.34" duration="74.00" routeLength="1017.75" waitingTime="0.00" waitingCount="0" stopTime="0.00" timeLoss="62.47" rerouteNo="0" devices="tripinfo_car_57" vType="car" speedFactor="1.14" vaporized=""/>
    <tripinfo id="bus_76" depart="105.00" departLane="54o_0" departPos="6.00" departSpeed="0.00" departDelay="54.00" arrival="186.00" arrivalLane="51i_0" arrivalPos="6.00" arrivalSpeed="19.91" duration="81.00" routeLength="1000.57" waitingTime="1.00" waitingCount="1" stopTime="0.00" timeLoss="66.80" rerouteNo="0" devices="tripinfo_bus_76" vType="bus" speedFactor="1.03" vaporized=""/>
    <tripinfo id="car_85" depart="110.00" departLane="52o_0" departPos="5.10" departSpeed="0.00" departDelay="52.00" arrival="188.00" arrivalLane="51i_0" arrivalPos="6.00" arrivalSpeed="18.66" duration="78.00" routeLength="1017.75" waitingTime="0.00" waitingCount="0" stopTime="0.00" timeLoss="65.57" rerouteNo="0" devices="tripinfo_car_85" vType="car" speedFactor="0.98" vaporized=""/>
    <tripinfo id="bus_93" depart="116.00" departLane="52o_0" departPos="6.00" departSpeed="0.00" departDelay="54.00" arrival="190.00" arrivalLane="51i_0" arrivalPos="6.00" arrivalSpeed="17.60" duration="74.00" routeLength="1016.85" waitingTime="0.00" waitingCount="0" stopTime="0.00" timeLoss="59.73" rerouteNo="0" devices="tripinfo_bus_93" vType="bus" speedFactor="0.92" vaporized=""/>
    <tripinfo id="bus_96" depart="123.00" departLane="52o_0" departPos="6.00" departSpeed="0.00" departDelay="58.00" arrival="193.00" arrivalLane="51i_0" arrivalPos="6.00" arrivalSpeed="19.23" duration="70.00" routeLength="1016.85" waitingTime="0.00" waitingCount="0" stopTime="0.00" timeLoss="55.54" rerouteNo="0" devices="tripinfo_bus_96" vType="bus" speedFactor="1.01" vaporized=""/>
    <tripinfo id="car_74" depart="105.00" departLane="53o_0" departPos="5.10" departSpeed="0.00" departDelay="55.00" arrival="194.00" arrivalLane="52i_0" arrivalPos="6.00" arrivalSpeed="18.20" duration="89.00" routeLength="1001.47" waitingTime="2.00" waitingCount="1" stopTime="0.00" timeLoss="76.37" rerouteNo="0" devices="tripinfo_car_74" vType="car" speedFactor="0.96" vaporized=""/>
    <tripinfo id="car_77" depart="110.00" departLane="53o_0" departPos="5.10" departSpeed="0.00" departDelay="57.00" arrival="196.00" arrivalLane="52i_0" arrivalPos="6.00" arrivalSpeed="18.98" duration="86.00" routeLength="1001.47" waitingTime="0.00" waitingCount="0" stopTime="0.00" timeLoss="72.84" rerouteNo="0" devices="tripinfo_car_77" vType="car" speedFactor="0.98" vaporized=""/>
    <tripinfo id="car_70" depart="120.00" departLane="51o_0" departPos="5.10" departSpeed="0.00" departDelay="75.00" arrival="197.00" arrivalLane="52i_0" arrivalPos="6.00" arrivalSpeed="19.54" duration="77.00" routeLength="1017.75" waitingTime="0.00" waitingCount="0" stopTime="0.00" timeLoss="64.85" rerouteNo="0" devices="tripinfo_car_70" vType="car" speedFactor="1.02" vaporized=""/>
    <tripinfo id="car_71" depart="125.00" departLane="51o_0" departPos="5.10" departSpeed="0.00" departDelay="78.00" arrival="200.00" arrivalLane="53i_0" arrivalPos="6.00" arrivalSpeed="18.60" duration="75.00" routeLength="1001.47" waitingTime="0.00" waitingCount="0" stopTime="0.00" timeLoss="61.81" rerouteNo="0" devices="tripinfo_car_71" vType="car" speedFactor="0.97" vaporized=""/>
    <tripinfo id="car_72" depart="130.00" departLane="51o_0" departPos="5.10" departSpeed="0.00" departDelay="82.00" arrival="206.00" arrivalLane="53i_0" arrivalPos="6.00" arrivalSpeed="18.13" duration="76.00" routeLength="1001.47" waitingTime="0.00" waitingCount="0" stopTime="0.00" timeLoss="63.47" rerouteNo="0" devices="tripinfo_car_72" vType="car" speedFactor="0.94" vaporized=""/>
    <tripinfo id="car_100" depart="129.00" departLane="52o_0" departPos="5.10" departSpeed="0.00" departDelay="61.00" arrival="206.00" arrivalLane="54i_0" arrivalPos="6.00" arrivalSpeed="20.43" duration="77.00" routeLength="1001.47" waitingTime="0.00" waitingCount="0" stopTime="0.00" timeLoss="65.00" rerouteNo="0" devices="tripinfo_car_100" vType="car" speedFactor="1.06" vaporized=""/>
    <tripinfo id="bus_79" depart="121.00" departLane="53o_0" departPos="6.00" departSpeed="0.00" departDelay="68.00" arrival="208.00" arrivalLane="52i_0" arrivalPos="6.00" arrivalSpeed="21.03" duration="87.00" routeLength="1000.57" waitingTime="2.00" waitingCount="1" stopTime="0.00" timeLoss="72.77" rerouteNo="0" devices="tripinfo_bus_79" vType="bus" speedFactor="1.09" vaporized=""/>
    <tripinfo id="car_101" depart="134.00" departLane="52o_0" departPos="5.10" departSpeed="0.00" departDelay="66.00" arrival="208.00" arrivalLane="54i_0" arrivalPos="6.00" arrivalSpeed="18.38" duration="74.00" routeLength="1001.47" waitingTime="0.00" waitingCount="0" stopTime="0.00" timeLoss="61.33" rerouteNo="0" devices="tripinfo_car_101" vType="car" speedFactor="0.96" vaporized=""/>
    <tripinfo id="bus_73" depart="135.00" departLane="51o_0" departPos="6.00" departSpeed="0.00" departDelay="86.00" arrival="209.00" arrivalLane="53i_0" arrivalPos="6.00" arrivalSpeed="20.52" duration="74.00" routeLength="1000.57" waitingTime="0.00" waitingCount="0" stopTime="0.00" timeLoss="60.44" rerouteNo="0" devices="tripinfo_bus_73" vType="bus" speedFactor="1.06" vaporized=""/>
    <tripinfo id="car_86" depart="141.00" departLane="51o_0" departPos="5.10" departSpeed="0.00" departDelay="83.00" arrival="220.00" arrivalLane="53i_0" arrivalPos="6.00" arrivalSpeed="19.25" duration="79.00" routeLength="1001.47" waitingTime="0.00" waitingCount="0" stopTime="0.00" timeLoss="65.92" rerouteNo="0" devices="tripinfo_car_86" vType="car" speedFactor="1.00" vaporized=""/>
    <tripinfo id="car_92" depart="148.00" departLane="54o_0" departPos="5.10" departSpeed="0.00" departDelay="87.00" arrival="222.00" arrivalLane="51i_0" arrivalPos="6.00" arrivalSpeed="16.20" duration="74.00" routeLength="1001.47" waitingTime="0.00" waitingCount="0" stopTime="0.00" timeLoss="59.59" rerouteNo="0" devices="tripinfo_car_92" vType="car" speedFactor="0.83" vaporized=""/>
    <tripinfo id="bus_112" depart="150.00" departLane="52o_0" departPos="6.00" departSpeed="0.00" departDelay="76.00" arrival="223.00" arrivalLane="54i_0" arrivalPos="6.00" arrivalSpeed="21.30" duration="73.00" routeLength="1000.57" waitingTime="1.00" waitingCount="1" stopTime="0.00" timeLoss="58.81" rerouteNo="0" devices="tripinfo_bus_112" vType="bus" speedFactor="1.10" vaporized=""/>
    <tripinfo id="car_108" depart="152.00" departLane="53o_0" departPos="5.10" departSpeed="0.00" departDelay="81.00" arrival="225.00" arrivalLane="52i_0" arrivalPos="6.00" arrivalSpeed="20.33" duration="73.00" routeLength="1001.47" waitingTime="0.00" waitingCount="0" stopTime="0.00" timeLoss="61.02" rerouteNo="0" devices="tripinfo_car_108" vType="car" speedFactor="1.06" vaporized=""/>
    <tripinfo id="bus_118" depart="157.00" departLane="53o_0" departPos="6.00" departSpeed="0.00" departDelay="81.00" arrival="230.00" arrivalLane="52i_0" arrivalPos="6.00" arrivalSpeed="18.91" duration="73.00" routeLength="1000.57" waitingTime="0.00" waitingCount="0" stopTime="0.00" timeLoss="59.63" rerouteNo="0" devices="tripinfo_bus_118" vType="bus" speedFactor="0.99" vaporized=""/>
    <tripinfo id="bus_97" depart="160.00" departLane="54o_0" departPos="6.00" departSpeed="0.00" departDelay="94.00" arrival="234.00" arrivalLane="51i_0" arrivalPos="6.00" arrivalSpeed="17.58" duration="74.00" routeLength="1000.57" waitingTime="1.00" waitingCount="1" stopTime="0.00" timeLoss="59.15" rerouteNo="0" devices="tripinfo_bus_97" vType="bus" speedFactor="0.91" vaporized=""/>
    <tripinfo id="bus_4" depart="7.00" departLane="51o_0" departPos="6.00" departSpeed="0.00" departDelay="5.00" arrival="241.00" arrivalLane="54i_0" arrivalPos="6.00" arrivalSpeed="19.67" duration="234.00" routeLength="1012.74" waitingTime="149.00" waitingCount="2" stopTime="0.00" timeLoss="220.32" rerouteNo="0" devices="tripinfo_bus_4" vType="bus" speedFactor="1.03" vaporized=""/>
    <tripinfo id="bus_27" depart="25.00" departLane="52o_0" departPos="6.00" departSpeed="0.00" departDelay="7.00" arrival="241.00" arrivalLane="53i_0" arrivalPos="6.00" arrivalSpeed="18.38" duration="216.00" routeLength="1012.74" waitingTime="132.00" waitingCount="2" stopTime="0.00" timeLoss="201.92" rerouteNo="0" devices="tripinfo_bus_27" vType="bus" speedFactor="0.95" vaporized=""/>
    <tripinfo id="car_38" depart="32.00" departLane="52o_0" departPos="5.10" departSpeed="0.00" departDelay="6.00" arrival="243.00" arrivalLane="53i_0" arrivalPos="6.00" arrivalSpeed="21.33" duration="211.00" routeLength="1013.64" waitingTime="126.00" waitingCount="1" stopTime="0.00" timeLoss="199.10" rerouteNo="0" devices="tripinfo_car_38" vType="car" speedFactor="1.10" vaporized=""/>
    <tripinfo id="car_9" depart="19.00" departLane="51o_0" departPos="5.10" departSpeed="0.00" departDelay="13.00" arrival="244.00" arrivalLane="54i_0" arrivalPos="6.00" arrivalSpeed="16.50" duration="225.00" routeLength="1013.64" waitingTime="139.00" waitingCount="1" stopTime="0.00" timeLoss="211.41" rerouteNo="0" devices="tripinfo_car_9" vType="car" speedFactor="0.86" vaporized=""/>
    <tripinfo id="bus_43" depart="37.00" departLane="52o_0" departPos="6.00" departSpeed="0.00" departDelay="9.00" arrival="245.00" arrivalLane="53i_0" arrivalPos="6.00" arrivalSpeed="19.87" duration="208.00" routeLength="1012.74" waitingTime="121.00" waitingCount="1" stopTime="0.00" timeLoss="194.58" rerouteNo="0" devices="tripinfo_bus_43" vType="bus" speedFactor="1.04" vaporized=""/>
    <tripinfo id="bus_20" depart="40.00" departLane="51o_0" departPos="6.00" departSpeed="0.00" departDelay="30.00" arrival="246.00" arrivalLane="54i_0" arrivalPos="6.00" arrivalSpeed="19.44" duration="206.00" routeLength="1012.74" waitingTime="120.00" waitingCount="2" stopTime="0.00" timeLoss="191.68" rerouteNo="0" devices="tripinfo_bus_20" vType="bus" speedFactor="1.02" vaporized=""/>
    <tripinfo id="car_28" depart="48.00" departLane="51o_0" departPos="5.10" departSpeed="0.00" departDelay="29.00" arrival="248.00" arrivalLane="54i_0" arrivalPos="6.00" arrivalSpeed="21.63" duration="200.00" routeLength="1013.64" waitingTime="111.00" waitingCount="1" stopTime="0.00" timeLoss="188.47" rerouteNo="0" devices="tripinfo_car_28" vType="car" speedFactor="1.13" vaporized=""/>
    <tripinfo id="bus_51" depart="50.00" departLane="52o_0" departPos="6.00" departSpeed="0.00" departDelay="17.00" arrival="248.00" arrivalLane="53i_0" arrivalPos="6.00" arrivalSpeed="22.43" duration="198.00" routeLength="1012.74" waitingTime="110.00" waitingCount="2" stopTime="0.00" timeLoss="184.54" rerouteNo="0" devices="tripinfo_bus_51" vType="bus" speedFactor="1.17" vaporized=""/>
    <tripinfo id="car_31" depart="59.00" departLane="51o_0" departPos="5.10" departSpeed="0.00" departDelay="38.00" arrival="250.00" arrivalLane="54i_0" arrivalPos="6.00" arrivalSpeed="22.18" duration="191.00" routeLength="1013.64" waitingTime="103.00" waitingCount="1" stopTime="0.00" timeLoss="178.68" rerouteNo="0" devices="tripinfo_car_31" vType="car" speedFactor="1.15" vaporized=""/>
    <tripinfo id="bus_55" depart="59.00" departLane="52o_0" departPos="6.00" departSpeed="0.00" departDelay="24.00" arrival="250.00" arrivalLane="53i_0" arrivalPos="6.00" arrivalSpeed="19.31" duration="191.00" routeLength="1012.74" waitingTime="104.00" waitingCount="1" stopTime="0.00" timeLoss="177.31" rerouteNo="0" devices="tripinfo_bus_55" vType="bus" speedFactor="1.00" vaporized=""/>
    <tripinfo id="bus_42" depart="75.00" departLane="51o_0" departPos="6.00" departSpeed="0.00" departDelay="47.00" arrival="252.00" arrivalLane="54i_0" arrivalPos="6.00" arrivalSpeed="21.02" duration="177.00" routeLength="1012.74" waitingTime="86.00" waitingCount="2" stopTime="0.00" timeLoss="162.61" rerouteNo="0" devices="tripinfo_bus_42" vType="bus" speedFactor="1.09" vaporized=""/>