<?xml version="1.0" encoding="UTF-8"?>

<!-- generated on 2024-07-20 01:57:16 by Eclipse SUMO GUI Version 1.20.0
<configuration xmlns:xsi="http://www.w3.org/2001/XMLSchema-instance" xsi:noNamespaceSchemaLocation="http://sumo.dlr.de/xsd/sumoConfiguration.xsd">

    <input>
        <net-file value="C:/Users/sohap/Desktop/traci_tls/data/cross.net.xml"/>
        <route-files value="C:/Users/sohap/Desktop/traci_tls/data/cross.rou.xml"/>
        <additional-files value="C:/Users/sohap/Desktop/traci_tls/data/cross.det.xml"/>
    </input>

    <output>
        <tripinfo-output value="C:/Users/sohap/Desktop/traci_tls/data/tripinfo.xml"/>
    </output>

    <time>
        <begin value="0"/>
    </time>

    <report>
        <verbose value="true"/>
        <no-step-log value="true"/>
    </report>

    <traci_server>
        <remote-port value="12125"/>
    </traci_server>

</configuration>
-->

<tripinfos xmlns:xsi="http://www.w3.org/2001/XMLSchema-instance" xsi:noNamespaceSchemaLocation="http://sumo.dlr.de/xsd/tripinfo_file.xsd">
    <tripinfo id="left_0" depart="0.00" departLane="52o_0" departPos="5.10" departSpeed="0.00" departDelay="0.00" arrival="131.00" arrivalLane="51i_0" arrivalPos="6.00" arrivalSpeed="4.72" duration="131.00" routeLength="1018.16" waitingTime="24.00" waitingCount="2" stopTime="0.00" timeLoss="57.55" rerouteNo="0" devices="tripinfo_left_0" vType="typeWE" speedFactor="1.06" vaporized=""/>
    <tripinfo id="right_5" depart="6.00" departLane="51o_0" departPos="6.00" departSpeed="0.00" departDelay="0.00" arrival="131.00" arrivalLane="52i_0" arrivalPos="6.00" arrivalSpeed="6.05" duration="125.00" routeLength="1017.26" waitingTime="12.00" waitingCount="1" stopTime="0.00" timeLoss="38.78" rerouteNo="0" devices="tripinfo_right_5" vType="typeNS" speedFactor="0.83" vaporized=""/>
    <tripinfo id="right_14" depart="20.00" departLane="51o_0" departPos="5.10" departSpeed="0.00" departDelay="0.00" arrival="137.00" arrivalLane="52i_0" arrivalPos="6.00" arrivalSpeed="3.96" duration="117.00" routeLength="1018.16" waitingTime="0.00" waitingCount="0" stopTime="0.00" timeLoss="40.74" rerouteNo="0" devices="tripinfo_right_14" vType="typeWE" speedFactor="0.99" vaporized=""/>
    <tripinfo id="left_1" depart="6.00" departLane="52o_0" departPos="6.00" departSpeed="0.00" departDelay="5.00" arrival="138.00" arrivalLane="51i_0" arrivalPos="6.00" arrivalSpeed="4.20" duration="132.00" routeLength="1017.26" waitingTime="15.00" waitingCount="2" stopTime="0.00" timeLoss="55.56" rerouteNo="0" devices="tripinfo_left_1" vType="typeNS" speedFactor="0.94" vaporized=""/>
    <tripinfo id="turn_right2_19" depart="46.00" departLane="52o_0" departPos="5.10" departSpeed="0.00" departDelay="17.00" arrival="175.00" arrivalLane="54i_0" arrivalPos="6.00" arrivalSpeed="4.66" duration="129.00" routeLength="998.95" waitingTime="21.00" waitingCount="3" stopTime="0.00" timeLoss="60.23" rerouteNo="0" devices="tripinfo_turn_right2_19" vType="typeWE" speedFactor="1.16" vaporized=""/>
    <tripinfo id="turn_right1_30" depart="51.00" departLane="51o_0" departPos="5.10" departSpeed="0.00" departDelay="7.00" arrival="181.00" arrivalLane="53i_0" arrivalPos="6.00" arrivalSpeed="3.98" duration="130.00" routeLength="998.95" waitingTime="24.00" waitingCount="2" stopTime="0.00" timeLoss="62.14" rerouteNo="0" devices="tripinfo_turn_right1_30" vType="typeWE" speedFactor="1.18" vaporized=""/>
    <tripinfo id="up_4" depart="5.00" departLane="53o_0" departPos="6.00" departSpeed="0.00" departDelay="0.00" arrival="196.00" arrivalLane="54i_0" arrivalPos="6.00" arrivalSpeed="4.02" duration="191.00" routeLength="1017.26" waitingTime="85.00" waitingCount="2" stopTime="0.00" timeLoss="121.46" rerouteNo="0" devices="tripinfo_up_4" vType="typeNS" speedFactor="1.03" vaporized=""/>
    <tripinfo id="turn_right3_6" depart="10.00" departLane="53o_0" departPos="6.00" departSpeed="0.00" departDelay="0.00" arrival="206.00" arrivalLane="52i_0" arrivalPos="6.00" arrivalSpeed="3.88" duration="196.00" routeLength="998.05" waitingTime="90.00" waitingCount="4" stopTime="0.00" timeLoss="128.76" rerouteNo="0" devices="tripinfo_turn_right3_6" vType="typeNS" speedFactor="1.05" vaporized=""/>
    <tripinfo id="up_26" depart="38.00" departLane="53o_0" departPos="6.00" departSpeed="0.00" departDelay="0.00" arrival="207.00" arrivalLane="54i_0" arrivalPos="6.00" arrivalSpeed="4.72" duration="169.00" routeLength="1017.26" waitingTime="49.00" waitingCount="2" stopTime="0.00" timeLoss="90.73" rerouteNo="0" devices="tripinfo_up_26" vType="typeNS" speedFactor="0.92" vaporized=""/>
    <tripinfo id="turn_right1_59" depart="97.00" departLane="51o_0" departPos="5.10" departSpeed="0.00" departDelay="1.00" arrival="236.00" arrivalLane="53i_0" arrivalPos="6.00" arrivalSpeed="3.92" duration="139.00" routeLength="998.95" waitingTime="28.00" waitingCount="2" stopTime="0.00" timeLoss="62.99" rerouteNo="0" devices="tripinfo_turn_right1_59" vType="typeWE" speedFactor="0.97" vaporized=""/>
    <tripinfo id="turn_right1_56" depart="92.00" departLane="51o_0" departPos="6.00" departSpeed="0.00" departDelay="0.00" arrival="257.00" arrivalLane="53i_0" arrivalPos="6.00" arrivalSpeed="3.91" duration="165.00" routeLength="998.05" waitingTime="49.00" waitingCount="3" stopTime="0.00" timeLoss="86.77" rerouteNo="0" devices="tripinfo_turn_right1_56" vType="typeNS" speedFactor="0.90" vaporized=""/>
    <tripinfo id="turn_right1_85" depart="139.00" departLane="51o_0" departPos="5.10" departSpeed="0.00" departDelay="0.00" arrival="279.00" arrivalLane="53i_0" arrivalPos="6.00" arrivalSpeed="4.18" duration="140.00" routeLength="998.95" waitingTime="22.00" waitingCount="4" stopTime="0.00" timeLoss="64.20" rerouteNo="0" devices="tripinfo_turn_right1_85" vType="typeWE" speedFactor="0.98" vaporized=""/>
    <tripinfo id="turn_right1_86" depart="145.00" departLane="51o_0" departPos="6.00" departSpeed="0.00" departDelay="6.00" arrival="306.00" arrivalLane="53i_0" arrivalPos="6.00" arrivalSpeed="4.64" duration="161.00" routeLength="998.05" waitingTime="47.00" waitingCount="2" stopTime="0.00" timeLoss="90.66" rerouteNo="0" devices="tripinfo_turn_right1_86" vType="typeNS" speedFactor="1.00" vaporized=""/>
    <tripinfo id="turn_right1_114" depart="172.00" departLane="51o_0" departPos="5.10" departSpeed="0.00" departDelay="0.00" arrival="316.00" arrivalLane="53i_0" arrivalPos="6.00" arrivalSpeed="4.15" duration="144.00" routeLength="998.95" waitingTime="27.00" waitingCount="4" stopTime="0.00" timeLoss="73.31" rerouteNo="0" devices="tripinfo_turn_right1_114" vType="typeWE" speedFactor="1.10" vaporized=""/>
    <tripinfo id="turn_left4_2" depart="2.00" departLane="54o_0" departPos="5.10" departSpeed="0.00" departDelay="0.00" arrival="404.00" arrivalLane="52i_0" arrivalPos="6.00" arrivalSpeed="4.43" duration="402.00" routeLength="984.38" waitingTime="305.00" waitingCount="2" stopTime="0.00" timeLoss="329.13" rerouteNo="0" devices="tripinfo_turn_left4_2" vType="typeWE" speedFactor="1.01" vaporized=""/>
    <tripinfo id="down_7" depart="11.00" departLane="54o_0" departPos="6.00" departSpeed="0.00" departDelay="0.00" arrival="419.00" arrivalLane="53i_0" arrivalPos="6.00" arrivalSpeed="4.67" duration="408.00" routeLength="983.48" waitingTime="303.00" waitingCount="3" stopTime="0.00" timeLoss="330.32" rerouteNo="0" devices="tripinfo_down_7" vType="typeNS" speedFactor="0.89" vaporized=""/>
    <tripinfo id="turn_left1_155" depart="261.00" departLane="51o_0" departPos="6.00" departSpeed="0.00" departDelay="35.00" arrival="429.00" arrivalLane="54i_0" arrivalPos="6.00" arrivalSpeed="4.16" duration="168.00" routeLength="1015.78" waitingTime="68.00" waitingCount="3" stopTime="0.00" timeLoss="104.38" rerouteNo="0" devices="tripinfo_turn_left1_155" vType="typeNS" speedFactor="1.12" vaporized=""/>
    <tripinfo id="right_20" depart="30.00" departLane="51o_0" departPos="6.00" departSpeed="0.00" departDelay="0.00" arrival="432.00" arrivalLane="52i_0" arrivalPos="6.00" arrivalSpeed="4.11" duration="402.00" routeLength="983.48" waitingTime="307.00" waitingCount="3" stopTime="0.00" timeLoss="334.88" rerouteNo="0" devices="tripinfo_right_20" vType="typeNS" speedFactor="1.02" vaporized=""/>
    <tripinfo id="turn_left1_9" depart="12.00" departLane="51o_0" departPos="5.10" departSpeed="0.00" departDelay="0.00" arrival="437.00" arrivalLane="54i_0" arrivalPos="6.00" arrivalSpeed="3.89" duration="425.00" routeLength="984.38" waitingTime="312.00" waitingCount="3" stopTime="0.00" timeLoss="344.59" rerouteNo="0" devices="tripinfo_turn_left1_9" vType="typeWE" speedFactor="0.86" vaporized=""/>
    <tripinfo id="left_3" depart="11.00" departLane="52o_0" departPos="5.10" departSpeed="0.00" departDelay="7.00" arrival="441.00" arrivalLane="51i_0" arrivalPos="6.00" arrivalSpeed="16.51" duration="430.00" routeLength="1009.35" waitingTime="317.00" waitingCount="4" stopTime="0.00" timeLoss="357.63" rerouteNo="0" devices="tripinfo_left_3" vType="typeWE" speedFactor="1.08" vaporized=""/>
    <tripinfo id="left_13" depart="24.00" departLane="52o_0" departPos="5.10" departSpeed="0.00" departDelay="5.00" arrival="447.00" arrivalLane="51i_0" arrivalPos="6.00" arrivalSpeed="4.55" duration="423.00" routeLength="1018.16" waitingTime="300.00" waitingCount="6" stopTime="0.00" timeLoss="352.23" rerouteNo="0" devices="tripinfo_left_13" vType="typeWE" speedFactor="1.12" vaporized=""/>
    <tripinfo id="turn_right1_87" depart="151.00" departLane="51o_0" departPos="5.10" departSpeed="0.00" departDelay="11.00" arrival="451.00" arrivalLane="53i_0" arrivalPos="6.00" arrivalSpeed="4.07" duration="300.00" routeLength="998.95" waitingTime="171.00" waitingCount="5" stopTime="0.00" timeLoss="227.14" rerouteNo="0" devices="tripinfo_turn_right1_87" vType="typeWE" speedFactor="1.04" vaporized=""/>
    <tripinfo id="turn_right1_120" depart="185.00" departLane="51o_0" departPos="6.00" departSpeed="0.00" departDelay="0.00" arrival="456.00" arrivalLane="53i_0" arrivalPos="6.00" arrivalSpeed="4.59" duration="271.00" routeLength="998.05" waitingTime="134.00" waitingCount="4" stopTime="0.00" timeLoss="196.09" rerouteNo="0" devices="tripinfo_turn_right1_120" vType="typeNS" speedFactor="0.94" vaporized=""/>
    <tripinfo id="left_12" depart="19.00" departLane="52o_0" departPos="5.10" departSpeed="0.00" departDelay="0.00" arrival="478.00" arrivalLane="51i_0" arrivalPos="6.00" arrivalSpeed="4.41" duration="459.00" routeLength="1018.16" waitingTime="333.00" waitingCount="5" stopTime="0.00" timeLoss="385.17" rerouteNo="0" devices="tripinfo_left_12" vType="typeWE" speedFactor="1.05" vaporized=""/>
    <tripinfo id="turn_right1_173" depart="284.00" departLane="51o_0" departPos="5.10" departSpeed="0.00" departDelay="22.00" arrival="480.00" arrivalLane="53i_0" arrivalPos="6.00" arrivalSpeed="4.25" duration="196.00" routeLength="998.95" waitingTime="78.00" waitingCount="3" stopTime="0.00" timeLoss="126.86" rerouteNo="0" devices="tripinfo_turn_right1_173" vType="typeWE" speedFactor="1.14" vaporized=""/>
    <tripinfo id="turn_right2_41" depart="67.00" departLane="52o_0" departPos="5.10" departSpeed="0.00" departDelay="0.00" arrival="487.00" arrivalLane="54i_0" arrivalPos="6.00" arrivalSpeed="4.61" duration="420.00" routeLength="998.95" waitingTime="291.00" waitingCount="2" stopTime="0.00" timeLoss="343.19" rerouteNo="0" devices="tripinfo_turn_right2_41" vType="typeWE" speedFactor="0.96" vaporized=""/>
    <tripinfo id="turn_left4_238" depart="376.00" departLane="54o_0" departPos="6.00" departSpeed="0.00" departDelay="3.00" arrival="494.00" arrivalLane="52i_0" arrivalPos="6.00" arrivalSpeed="4.44" duration="118.00" routeLength="1015.78" waitingTime="16.00" waitingCount="3" stopTime="0.00" timeLoss="52.67" rerouteNo="0" devices="tripinfo_turn_left4_238" vType="typeNS" speedFactor="1.10" vaporized=""/>
    <tripinfo id="turn_right2_44" depart="78.00" departLane="52o_0" departPos="5.10" departSpeed="0.00" departDelay="0.00" arrival="499.00" arrivalLane="54i_0" arrivalPos="6.00" arrivalSpeed="4.54" duration="421.00" routeLength="998.95" waitingTime="289.00" waitingCount="5" stopTime="0.00" timeLoss="348.11" rerouteNo="0" devices="tripinfo_turn_right2_44" vType="typeWE" speedFactor="1.04" vaporized=""/>
    <tripinfo id="turn_right3_8" depart="17.00" departLane="53o_0" departPos="6.00" departSpeed="0.00" departDelay="6.00" arrival="502.00" arrivalLane="52i_0" arrivalPos="6.00" arrivalSpeed="4.11" duration="485.00" routeLength="983.48" waitingTime="376.00" waitingCount="4" stopTime="0.00" timeLoss="411.65" rerouteNo="0" devices="tripinfo_turn_right3_8" vType="typeNS" speedFactor="0.94" vaporized=""/>
    <tripinfo id="left_15" depart="30.00" departLane="52o_0" departPos="6.00" departSpeed="0.00" departDelay="8.00" arrival="508.00" arrivalLane="51i_0" arrivalPos="6.00" arrivalSpeed="3.77" duration="478.00" routeLength="1017.26" waitingTime="337.00" waitingCount="7" stopTime="0.00" timeLoss="400.74" rerouteNo="0" devices="tripinfo_left_15" vType="typeNS" speedFactor="0.93" vaporized=""/>
    <tripinfo id="turn_left2_16" depart="35.00" departLane="52o_0" departPos="6.00" departSpeed="0.00" departDelay="12.00" arrival="509.00" arrivalLane="53i_0" arrivalPos="6.00" arrivalSpeed="4.39" duration="474.00" routeLength="983.48" waitingTime="346.00" waitingCount="8" stopTime="0.00" timeLoss="395.63" rerouteNo="0" devices="tripinfo_turn_left2_16" vType="typeNS" speedFactor="0.88" vaporized=""/>
    <tripinfo id="turn_right4_17" depart="28.00" departLane="54o_0" departPos="6.00" departSpeed="0.00" departDelay="3.00" arrival="524.00" arrivalLane="51i_0" arrivalPos="6.00" arrivalSpeed="4.85" duration="496.00" routeLength="998.05" waitingTime="372.00" waitingCount="5" stopTime="0.00" timeLoss="421.19" rerouteNo="0" devices="tripinfo_turn_right4_17" vType="typeNS" speedFactor="0.94" vaporized=""/>
    <tripinfo id="turn_right3_31" depart="49.00" departLane="53o_0" departPos="5.10" departSpeed="0.00" departDelay="4.00" arrival="529.00" arrivalLane="52i_0" arrivalPos="6.00" arrivalSpeed="4.72" duration="480.00" routeLength="984.38" waitingTime="381.00" waitingCount="7" stopTime="0.00" timeLoss="414.09" rerouteNo="0" devices="tripinfo_turn_right3_31" vType="typeWE" speedFactor="1.15" vaporized=""/>
    <tripinfo id="turn_left3_230" depart="357.00" departLane="53o_0" departPos="6.00" departSpeed="0.00" departDelay="0.00" arrival="529.00" arrivalLane="51i_0" arrivalPos="6.00" arrivalSpeed="4.92" duration="172.00" routeLength="1015.78" waitingTime="46.00" waitingCount="5" stopTime="0.00" timeLoss="103.27" rerouteNo="0" devices="tripinfo_turn_left3_230" vType="typeNS" speedFactor="1.04" vaporized=""/>
    <tripinfo id="left_18" depart="41.00" departLane="52o_0" departPos="5.10" departSpeed="0.00" departDelay="13.00" arrival="538.00" arrivalLane="51i_0" arrivalPos="6.00" arrivalSpeed="4.51" duration="497.00" routeLength="1018.16" waitingTime="356.00" waitingCount="6" stopTime="0.00" timeLoss="417.81" rerouteNo="0" devices="tripinfo_left_18" vType="typeWE" speedFactor="0.94" vaporized=""/>
    <tripinfo id="turn_left2_42" depart="72.00" departLane="52o_0" departPos="5.10" departSpeed="0.00" departDelay="0.00" arrival="538.00" arrivalLane="53i_0" arrivalPos="6.00" arrivalSpeed="4.67" duration="466.00" routeLength="984.38" waitingTime="354.00" waitingCount="5" stopTime="0.00" timeLoss="397.42" rerouteNo="0" devices="tripinfo_turn_left2_42" vType="typeWE" speedFactor="1.09" vaporized=""/>
    <tripinfo id="turn_right3_48" depart="85.00" departLane="53o_0" departPos="6.00" departSpeed="0.00" departDelay="4.00" arrival="538.00" arrivalLane="52i_0" arrivalPos="6.00" arrivalSpeed="4.35" duration="453.00" routeLength="983.48" waitingTime="337.00" waitingCount="6" stopTime="0.00" timeLoss="376.57" rerouteNo="0" devices="tripinfo_turn_right3_48" vType="typeNS" speedFactor="0.88" vaporized=""/>
    <tripinfo id="turn_right2_53" depart="104.00" departLane="52o_0" departPos="5.10" departSpeed="0.00" departDelay="19.00" arrival="562.00" arrivalLane="54i_0" arrivalPos="6.00" arrivalSpeed="3.64" duration="458.00" routeLength="998.95" waitingTime="324.00" waitingCount="9" stopTime="0.00" timeLoss="387.36" rerouteNo="0" devices="tripinfo_turn_right2_53" vType="typeWE" speedFactor="1.10" vaporized=""/>
    <tripinfo id="turn_right3_27" depart="43.00" departLane="53o_0" departPos="6.00" departSpeed="0.00" departDelay="4.00" arrival="568.00" arrivalLane="52i_0" arrivalPos="6.00" arrivalSpeed="4.42" duration="525.00" routeLength="998.05" waitingTime="399.00" waitingCount="9" stopTime="0.00" timeLoss="450.78" rerouteNo="0" devices="tripinfo_turn_right3_27" vType="typeNS" speedFactor="0.95" vaporized=""/>
    <tripinfo id="turn_right3_54" depart="96.00" departLane="53o_0" departPos="5.10" departSpeed="0.00" departDelay="6.00" arrival="577.00" arrivalLane="52i_0" arrivalPos="6.00" arrivalSpeed="4.21" duration="481.00" routeLength="984.38" waitingTime="355.00" waitingCount="9" stopTime="0.00" timeLoss="410.62" rerouteNo="0" devices="tripinfo_turn_right3_54" vType="typeWE" speedFactor="1.00" vaporized=""/>
    <tripinfo id="up_34" depart="54.00" departLane="53o_0" departPos="6.00" departSpeed="0.00" departDelay="2.00" arrival="588.00" arrivalLane="54i_0" arrivalPos="6.00" arrivalSpeed="4.07" duration="534.00" routeLength="1017.26" waitingTime="400.00" waitingCount="10" stopTime="0.00" timeLoss="461.97" rerouteNo="0" devices="tripinfo_up_34" vType="typeNS" speedFactor="0.99" vaporized=""/>
    <tripinfo id="turn_right3_97" depart="156.00" departLane="53o_0" departPos="5.10" departSpeed="0.00" departDelay="2.00" arrival="589.00" arrivalLane="52i_0" arrivalPos="6.00" arrivalSpeed="4.29" duration="433.00" routeLength="998.95" waitingTime="302.00" waitingCount="4" stopTime="0.00" timeLoss="353.62" rerouteNo="0" devices="tripinfo_turn_right3_97" vType="typeWE" speedFactor="0.91" vaporized=""/>
    <tripinfo id="up_36" depart="60.00" departLane="53o_0" departPos="6.00" departSpeed="0.00" departDelay="6.00" arrival="596.00" arrivalLane="54i_0" arrivalPos="6.00" arrivalSpeed="4.03" duration="536.00" routeLength="1017.26" waitingTime="403.00" waitingCount="8" stopTime="0.00" timeLoss="462.28" rerouteNo="0" devices="tripinfo_up_36" vType="typeNS" speedFactor="0.97" vaporized=""/>
    <tripinfo id="turn_right3_104" depart="163.00" departLane="53o_0" departPos="5.10" departSpeed="0.00" departDelay="0.00" arrival="644.00" arrivalLane="52i_0" arrivalPos="6.00" arrivalSpeed="4.56" duration="481.00" routeLength="984.38" waitingTime="362.00" waitingCount="8" stopTime="0.00" timeLoss="405.87" rerouteNo="0" devices="tripinfo_turn_right3_104" vType="typeWE" speedFactor="0.89" vaporized=""/>
    <tripinfo id="turn_right1_176" depart="293.00" departLane="51o_0" departPos="6.00" departSpeed="0.00" departDelay="26.00" arrival="702.00" arrivalLane="53i_0" arrivalPos="6.00" arrivalSpeed="4.57" duration="409.00" routeLength="983.48" waitingTime="315.00" waitingCount="3" stopTime="0.00" timeLoss="347.08" rerouteNo="0" devices="tripinfo_turn_right1_176" vType="typeNS" speedFactor="1.09" vaporized=""/>
    <tripinfo id="turn_right1_170" depart="271.00" departLane="51o_0" departPos="6.00" departSpeed="0.00" departDelay="10.00" arrival="716.00" arrivalLane="53i_0" arrivalPos="6.00" arrivalSpeed="4.01" duration="445.00" routeLength="983.48" waitingTime="325.00" waitingCount="6" stopTime="0.00" timeLoss="383.46" rerouteNo="0" devices="tripinfo_turn_right1_170" vType="typeNS" speedFactor="1.09" vaporized=""/>
    <tripinfo id="turn_left4_10" depart="17.00" departLane="54o_0" departPos="6.00" departSpeed="0.00" departDelay="0.00" arrival="720.00" arrivalLane="52i_0" arrivalPos="6.00" arrivalSpeed="4.34" duration="703.00" routeLength="983.48" waitingTime="606.00" waitingCount="3" stopTime="0.00" timeLoss="640.02" rerouteNo="0" devices="tripinfo_turn_left4_10" vType="typeNS" speedFactor="1.09" vaporized=""/>
    <tripinfo id="turn_right1_153" depart="254.00" departLane="51o_0" departPos="6.00" departSpeed="0.00" departDelay="30.00" arrival="728.00" arrivalLane="53i_0" arrivalPos="6.00" arrivalSpeed="4.39" duration="474.00" routeLength="983.48" waitingTime="350.00" waitingCount="6" stopTime="0.00" timeLoss="402.30" rerouteNo="0" devices="tripinfo_turn_right1_153" vType="typeNS" speedFactor="0.93" vaporized=""/>
    <tripinfo id="turn_left1_198" depart="331.00" departLane="51o_0" departPos="5.10" departSpeed="0.00" departDelay="20.00" arrival="730.00" arrivalLane="54i_0" arrivalPos="6.00" arrivalSpeed="4.97" duration="399.00" routeLength="984.38" waitingTime="307.00" waitingCount="2" stopTime="0.00" timeLoss="329.36" rerouteNo="0" devices="tripinfo_turn_left1_198" vType="typeWE" speedFactor="1.06" vaporized=""/>
    <tripinfo id="turn_left1_21" depart="34.00" departLane="51o_0" departPos="5.10" departSpeed="0.00" departDelay="3.00" arrival="739.00" arrivalLane="54i_0" arrivalPos="6.00" arrivalSpeed="4.13" duration="705.00" routeLength="984.38" waitingTime="603.00" waitingCount="3" stopTime="0.00" timeLoss="632.29" rerouteNo="0" devices="tripinfo_turn_left1_21" vType="typeWE" speedFactor="1.01" vaporized=""/>
    <tripinfo id="right_185" depart="310.00" departLane="51o_0" departPos="6.00" departSpeed="0.00" departDelay="29.00" arrival="758.00" arrivalLane="52i_0" arrivalPos="6.00" arrivalSpeed="4.48" duration="448.00" routeLength="983.48" waitingTime="347.00" waitingCount="3" stopTime="0.00" timeLoss="382.08" rerouteNo="0" devices="tripinfo_right_185" vType="typeNS" speedFactor="0.92" vaporized=""/>
    <tripinfo id="turn_right1_187" depart="315.00" departLane="51o_0" departPos="6.00" departSpeed="0.00" departDelay="29.00" arrival="758.00" arrivalLane="53i_0" arrivalPos="6.00" arrivalSpeed="4.46" duration="443.00" routeLength="983.48" waitingTime="328.00" waitingCount="5" stopTime="0.00" timeLoss="369.06" rerouteNo="0" devices="tripinfo_turn_right1_187" vType="typeNS" speedFactor="0.89" vaporized=""/>
    <tripinfo id="right_144" depart="231.00" departLane="51o_0" departPos="5.10" departSpeed="0.00" departDelay="21.00" arrival="771.00" arrivalLane="52i_0" arrivalPos="6.00" arrivalSpeed="4.62" duration="540.00" routeLength="984.38" waitingTime="424.00" waitingCount="4" stopTime="0.00" timeLoss="455.93" rerouteNo="0" devices="tripinfo_right_144" vType="typeWE" speedFactor="0.73" vaporized=""/>
    <tripinfo id="right_150" depart="242.00" departLane="51o_0" departPos="6.00" departSpeed="0.00" departDelay="23.00" arrival="776.00" arrivalLane="52i_0" arrivalPos="6.00" arrivalSpeed="4.80" duration="534.00" routeLength="983.48" waitingTime="431.00" waitingCount="5" stopTime="0.00" timeLoss="470.74" rerouteNo="0" devices="tripinfo_right_150" vType="typeNS" speedFactor="0.96" vaporized=""/>
</tripinfos>
