<?xml version="1.0" encoding="UTF-8"?>

<!-- generated on 2024-07-18 16:52:36 by Eclipse SUMO GUI Version 1.20.0
<configuration xmlns:xsi="http://www.w3.org/2001/XMLSchema-instance" xsi:noNamespaceSchemaLocation="http://sumo.dlr.de/xsd/sumoConfiguration.xsd">

    <input>
        <net-file value="C:/Users/sohap/Desktop/traci_tls/data/cross.net.xml"/>
        <route-files value="C:/Users/sohap/Desktop/traci_tls/data/cross.rou.xml"/>
        <additional-files value="C:/Users/sohap/Desktop/traci_tls/data/cross.det.xml"/>
    </input>

    <output>
        <tripinfo-output value="C:/Users/sohap/Desktop/traci_tls/data/tripinfo.xml"/>
    </output>

    <time>
        <begin value="0"/>
    </time>

    <report>
        <verbose value="true"/>
        <no-step-log value="true"/>
    </report>

    <traci_server>
        <remote-port value="10614"/>
    </traci_server>

</configuration>
-->

<detector xmlns:xsi="http://www.w3.org/2001/XMLSchema-instance" xsi:noNamespaceSchemaLocation="http://sumo.dlr.de/xsd/det_e1_file.xsd">
</detector>
